# ODT 1.0
# Table Start
# Title: mmArchive Data Table, Mon Oct 27 21:09:04 GMT 2014
# Columns: {Oxs_EulerEvolve::Total energy} {Oxs_EulerEvolve::Energy calc count} {Oxs_EulerEvolve::Max dm/dt} Oxs_EulerEvolve::dE/dt {Oxs_EulerEvolve::Delta E} Oxs_UniformExchange:NiFe:Energy {Oxs_UniformExchange:NiFe:Max Spin Ang} {Oxs_UniformExchange:NiFe:Stage Max Spin Ang} {Oxs_UniformExchange:NiFe:Run Max Spin Ang} Oxs_CubicAnisotropy::Energy Oxs_UZeeman::Energy  Oxs_UZeeman::B       Oxs_UZeeman::Bx      Oxs_UZeeman::By      Oxs_UZeeman::Bz      Oxs_SimpleDemag::Energy Oxs_TimeDriver::Iteration {Oxs_TimeDriver::Stage iteration} Oxs_TimeDriver::Stage Oxs_TimeDriver::mx   Oxs_TimeDriver::my   Oxs_TimeDriver::mz   {Oxs_TimeDriver::Last time step} {Oxs_TimeDriver::Simulation time}
# Units:                  J                                 {}                             deg/ns                     J/s                       J                             J                                  deg                                        deg                                          deg                                  J                       J                 mT                   mT                   mT                   mT                        J                       {}                            {}                          {}                   {}                   {}                   {}                          s                                 s                
                 1.6320348243642583e-016                1                                4276.5657863169154       -5.6259749133688421e-006      0                            4.3267181839931922e-017                 93.56543830527238                          93.56543830527238                            93.56543830527238                   5.3994307659277819e-017      0                    0                    0                    0                    0                     6.594199293721609e-017      0                             0                           0                     0.037552150360677633 -0.017869911906978685 -1.1835746645858899e-009        0                                0                         
                 1.6319033705220058e-016                2                                4274.9374083422663       -5.6231528822453615e-006     -1.3145384225457493e-020          4.326367260504254e-017                 93.564711976362361                         93.56543830527238                            93.56543830527238                   5.3984417421221519e-017      0                    0                    0                    0                    0                     6.5942247025936511e-017      1                             1                           0                     0.037549332522573677 -0.017870833633131682  2.5825696230402901e-007        2.3383248381202265e-015              2.3383248381202265e-015       
                 1.6317391667799809e-016                3                                4272.9037489027323       -5.6196286209780109e-006     -1.6420374202369817e-020          4.3259288024823433e-017                 93.563804923262424                         93.56543830527238                            93.56543830527238                   5.3972059995786562e-017      0                    0                    0                    0                    0                     6.5942568657388086e-017      2                             2                           0                     0.037545806395868832 -0.017871986862630303  5.8244209164496702e-007        2.9229060476502831e-015              5.26123088577051e-015       
                 1.631534089358952e-016                4                                4270.3628222198513       -5.615228409601501e-006     -2.0507742103131139e-020          4.3253810365229741e-017                 93.562670102626598                         93.56543830527238                            93.56543830527238                   5.3956621593435856e-017      0                    0                    0                    0                    0                     6.5942976977229593e-017      3                             3                           0                     0.037541392758645133 -0.01787343007304814  9.8749290623535696e-007        3.653632559562854e-015              8.914863445333364e-015       
                 1.6312780191904344e-016                5                                4267.1884583159817       -5.609736125984073e-006     -2.5607016851470428e-020          4.3246968076734122e-017                 93.561250008620959                         93.56543830527238                            93.56543830527238                   5.393733665505162e-017      0                    0                    0                    0                    0                     6.5943497187257688e-017      4                             4                           0                     0.037535866378155966 -0.017875236698727769  1.4935241187051081e-006        4.5670406994535679e-015              1.3481904144786932e-014       
                 1.6309583629861675e-016                6                                4263.2233097799644       -5.6028832179098622e-006     -3.1965620426974782e-020          4.3238422686202736e-017                 93.559472442633762                         93.56543830527238                            93.56543830527238                   5.3913250840189568e-017      0                    0                    0                    0                    0                     6.594416277222443e-017      5                             5                           0                     0.037528943833824852 -0.017877499058696223  2.125621791779532e-006        5.7088008743169599e-015              1.9190705019103893e-014       
                 1.6305594656080984e-016                7                                4258.2712638860894       -5.5943364850259091e-006     -3.9889737806919776e-020          4.3227752604444419e-017                 93.557246663010645                         93.56543830527238                            93.56543830527238                   5.3883175273451442e-017      0                    0                    0                    0                    0                     6.5945018682913963e-017      6                             6                           0                     0.037520267920245425 -0.017880333371712048  2.9150538175150591e-006        7.1360010928961993e-015              2.6326706112000092e-014       
                 1.6300618926230792e-016                8                                4252.0880749220823       -5.5836832963545409e-006     -4.9757298501964261e-020          4.3214433185092324e-017                 93.55445847344096                          93.56543830527238                            93.56543830527238                   5.3845630139214913e-017      0                    0                    0                    0                    0                     6.5946125938000692e-017      7                             7                           0                     0.03750938756720415 -0.017883886188417873  3.9007647090539075e-006        8.9200013661202491e-015              3.5246707478120341e-014       
                 1.6294415599168891e-016                9                                4244.3698386204396       -5.5704138682089266e-006     -6.2033270618612595e-020          4.3197812262912469e-017                 93.550963929871514                         93.56543830527238                            93.56543830527238                   5.3798775381534986e-017      0                    0                    0                    0                    0                     6.5947568347241442e-017      8                             8                           0                     0.03749573183423776 -0.01788834268487852  5.1312153847597479e-006        1.1150001707650311e-014              4.6396709185770649e-014       
                 1.6286686864406327e-016                10                               4234.7388744638238       -5.5539002739600499e-006     -7.7287347625818812e-020          4.3177080296726284e-017                 93.546581235719557                         93.56543830527238                            93.56543830527238                   5.3740325919904546e-017      0                    0                    0                    0                    0                     6.5949462427432429e-017      9                             9                           0                     0.037478576001940295 -0.017893937421686872  6.666637850434553e-006        1.393750213456289e-014              6.0334211320333542e-014       
                 1.6277065477125273e-016                11                               4222.7265337389426       -5.5333719856793837e-006     -9.6213872810557587e-020          4.3151234161602243e-017                 93.541080241312969                         93.56543830527238                            93.56543830527238                   5.3667448459722405e-017      0                    0                    0                    0                    0                     6.5951972149928078e-017      10                            10                          0                     0.037456997020873642 -0.017900968398438934  8.5817827840893602e-006        1.7421877668203613e-014              7.7756088988537162e-014       
                 1.6265100133965282e-016                12                               4207.7524266032688       -5.5078880101860395e-006     -1.1965343160001488e-019          4.3119033607298735e-017                 93.534168746523051                         93.56543830527238                            93.56543830527238                   5.3576636700767498e-017      0                    0                    0                    0                    0                     6.5955331031586583e-017      11                            11                          0                     0.037429814488880886 -0.017909815553969009  1.0969242701888956e-005        2.1777347085254515e-014              9.9533436073791683e-014       
                 1.6250238648466955e-016                13                               4189.0995865198702       -5.4763061536648431e-006     -1.4861485498329339e-019          4.307894947554455e-017                 93.525474497131867                         93.56543830527238                            93.56543830527238                   5.3463561585460151e-017      0                    0                    0                    0                    0                     6.595987542366485e-017      12                            12                          0                     0.037395511760097214 -0.017920965320462442  1.3943430548227941e-005        2.7221683856568145e-014              1.2675511993035984e-013       
                 1.62318091191464e-016                14                               4165.8852101486218       -5.437250733167784e-006     -1.8429529320524178e-019          4.3029103028798408e-017                 93.514521324336258                         93.56543830527238                            93.56543830527238                   5.3322893247543619e-017      0                    0                    0                    0                    0                     6.5966094915121972e-017      13                            13                          0                     0.037352129531439529 -0.017935043494347897  1.7645276132341522e-005        3.4027104820710185e-014              1.6078222475107003e-013       
                 1.6208999681054515e-016                15                               4137.0268998790261       -5.3890812815142218e-006     -2.2809438091908396e-019          4.2967196316036235e-017                 93.500697243451143                         93.56543830527238                            93.56543830527238                   5.3148091569715295e-017      0                    0                    0                    0                    0                     6.5974708924793611e-017      14                            14                          0                     0.037297121007767248 -0.017952859621767629  2.2247658767682222e-005        4.2533881025887731e-014              2.0331610577695776e-013       
                 1.6180838066091467e-016                16                               4101.2049165864473       -5.3298666103038648e-006     -2.8161614963048549e-019          4.2890434588240444e-017                 93.48321141788621                          93.56543830527238                            93.56543830527238                   5.2931162699764367e-017      0                    0                    0                    0                    0                     6.5986783372909869e-017      15                            15                          0                     0.037227153115226945 -0.017975467421924733  2.7961503387751275e-005        5.3167351282359665e-014              2.5648345705931743e-013       
                 1.6146173155465507e-016                17                               4056.8220177900039       -5.2573711192267497e-006     -3.4664910625936109e-019          4.2795443694329273e-017                 93.461035591000552                         93.56543830527238                            93.56543830527238                   5.2662379242728615e-017      0                    0                    0                    0                    0                     6.6003908617597203e-017      16                            16                          0                     0.037137831708203853 -0.018004247624111108  3.5042295065439077e-005        6.6459189102949582e-014              3.2294264616226702e-013       
                 1.6103662078116282e-016                18                               4001.9643225194413       -5.1690634462506234e-006     -4.251107734927267e-019          4.2678188644630114e-017                 93.432823736581028                         93.56543830527238                            93.56543830527238                   5.2329961361374438e-017      0                    0                    0                    0                    0                     6.6028470775158282e-017      17                            17                          0                     0.037023319735955837 -0.018041022117587138  4.3796455750239704e-005        8.307398637868698e-014              4.0601663254095398e-013       
                 1.6051768250389992e-016                19                               3934.3698030577266       -5.0621610683622415e-006     -5.1893827726261197e-019          4.2533904967108528e-017                 93.39680108813404                          93.56543830527238                            93.56543830527238                   5.1919712892901046e-017      0                    0                    0                    0                    0                     6.6064064643890355e-017      18                            18                          0                     0.036875805454453507 -0.018088211598528029  5.4586480508985474e-005        1.0384248297335872e-013              5.098591155143127e-013       
                 1.5988778034796073e-016                20                               3851.4162527156395       -4.9337271937393121e-006     -6.2990215593927698e-019          4.235706358156211e-017                 93.350610179182638                         93.56543830527238                            93.56543830527238                   5.1414597313927155e-017      0                    0                    0                    0                    0                     6.6116119452471464e-017      19                            19                          0                     0.036684763121634954 -0.018149052826212986  6.7832785729672349e-005        1.298031037166984e-013              6.3966221923101107e-013       
                 1.5912846213521979e-016                21                               3750.1492514660567       -4.7808359277382955e-006     -7.5931821274089133e-019          4.2141405439623972e-017                 93.291096941685041                         93.56543830527238                            93.56543830527238                   5.0794217016416716e-017      0                    0                    0                    0                    0                     6.6192839679179111e-017      20                            20                          0                     0.036435933002068696 -0.01822789547904546  8.400860324364453e-005        1.6225387964587299e-013              8.0191609887688406e-013       
                 1.5822082759275777e-016                22                               3627.3850400748865       -4.6008143920316873e-006     -9.0763454246202134e-019          4.1880109545126958e-017                 93.214014456122754                         93.56543830527238                            93.56543830527238                   5.003411792814248e-017      0                    0                    0                    0                    0                     6.6306600119488337e-017      21                            21                          0                     0.036109936771276989 -0.018330600369093734  0.00010362149562862052        2.0281734955734124e-013              1.0047334484342253e-012       
                 1.571469473766406e-016                23                               3479.9469604792498       -4.3915515959642863e-006     -1.0738802161170969e-018          4.1566208133043751e-017                 93.113616671118066                         93.56543830527238                            93.56543830527238                   4.9104774805567865e-017      0                    0                    0                    0                    0                     6.6475964438028997e-017      22                            22                          0                     0.035680453346034827 -0.018465055353511482  0.00012717038108269032        2.5352168694667653e-013              1.2582551353809018e-012       
                 1.5589196987350561e-016                24                               3313.2931891602175       -4.1518318777373652e-006     -1.2549775031350161e-018          4.1193457867789767e-017                 92.982112484016156                         93.56543830527238                            93.56543830527238                   4.7970034908784284e-017      0                    0                    0                    0                    0                     6.672847709693155e-017      23                            23                          0                     0.035111942240749906 -0.01864180132198829  0.00015505903171353345        3.1690210868334564e-013              1.5751572440642474e-012       
                 1.5444703818370517e-016                25                               3244.3046003672271       -3.8816162233306464e-006     -1.444931689800462e-018          4.0758059327717397e-017                 92.809266861893022                         93.56543830527238                            93.56543830527238                   4.6584785919884956e-017      0                    0                    0                    0                    0                     6.7104192936102799e-017      24                            24                          0                     0.034357087136391129 -0.018874694488536979  0.00018743377870781162        3.9612763585418205e-013              1.9712848799184293e-012       
                 1.5282567310141153e-016                26                               3182.4996225792725       -3.5843452018233953e-006     -1.6213650822936758e-018          4.0265991101602673e-017                 92.586145863557732                         93.56543830527238                            93.56543830527238                   4.4905983962168178e-017      0                    0                    0                    0                    0                     6.7653698037640692e-017      25                            25                          0                     0.033363935969091797 -0.019178544174658856  0.00022355321418850342        4.9054879820580848e-013              2.4618336781242377e-012       
                 1.512821077182649e-016                27                               3106.3743691692348       -3.3025214038750989e-006     -1.5435653831464171e-018          3.9807431474489371e-017                 92.342849117048303                         93.56543830527238                            93.56543830527238                   4.3168433581507827e-017      0                    0                    0                    0                    0                     6.8306242662267708e-017      26                            26                          0                     0.032277926073185387 -0.019508258707259689  0.00025567266054462998        5.0748162803565672e-013              2.9693153061598943e-012       
                 1.4980725078047718e-016                28                               3013.3178475543577       -3.0316949142965175e-006     -1.4748569377879383e-018          3.9392461486522099e-017                 92.078261575054228                         93.56543830527238                            93.56543830527238                   4.1357455445397065e-017      0                    0                    0                    0                    0                     6.9057333848558007e-017      27                            27                          0                     0.031102567772074114 -0.019862187032088245  0.00028333632871000407        5.2912294970467709e-013              3.4984382558645716e-012       
                 1.484013778306369e-016                29                               2902.6615808557208       -2.7694285924226081e-006     -1.4058729498402401e-018          3.9035347045592004e-017                 91.792721043674831                         93.56543830527238                            93.56543830527238                   3.9471672780242225e-017      0                    0                    0                    0                    0                     6.9894358004802673e-017      28                            28                          0                     0.02984884935005103 -0.020236291621327302  0.00030578066272051992        5.5305715676920885e-013              4.0514954126337803e-012       
                 1.4706685037642753e-016                30                               2775.4912978494053       -2.5139199688925624e-006     -1.3345274542091639e-018          3.875200893275531e-017                 91.487234308680684                         93.56543830527238                            93.56543830527238                   3.7516286214150574e-017      0                    0                    0                    0                    0                     7.0798555229521632e-017      29                            29                          0                     0.028531589806712221 -0.020625292556860454  0.00032216281417861669        5.7921814692027165e-013              4.6307135595540518e-012       
                 1.4580869129400851e-016                31                               2634.2955236799371       -2.2641092407352154e-006     -1.258159082419157e-018          3.8559422083584552e-017                 91.172826102391895                         93.56543830527238                            93.56543830527238                   3.5504809471733471e-017      0                    0                    0                    0                    0                     7.1744459738690509e-017      30                            30                          0                     0.027171332194331543 -0.021022162082273265  0.00033160400542642596        6.0699548954290464e-013              5.2377090490969564e-012       
                 1.4463430580431591e-016                32                               2482.1217902032286       -2.0198357170346322e-006     -1.1743854896927053e-018          3.8473933889622186e-017                 90.858670976050945                         93.56543830527238                            93.56543830527238                   3.3459693430869321e-017      0                    0                    0                    0                    0                     7.2700678483824419e-017      31                            31                          0                     0.025795452073474241 -0.021417895112623108  0.00033329788460704368        6.3539710629780093e-013              5.8731061553947577e-012       
                 1.4357598871874014e-016                33                               2325.1676683960904       -1.7870808502516628e-006     -1.0583170855755634e-018          3.8506291972986402e-017                 90.548291318958547                         93.56543830527238                            93.56543830527238                   3.1464410178216194e-017      0                    0                    0                    0                    0                     7.3605286567537555e-017      32                            32                          0                     0.02447643031355571 -0.021790915608031643  0.000326857389417437        6.4444842638195157e-013              6.5175545817767095e-012       
                 1.4262855414761585e-016                34                               2164.1420136091142       -1.5660880229456533e-006     -9.4743457112443508e-019          3.8654751237814778e-017                 90.329686507091097                         93.56543830527238                            93.56543830527238                   2.9536145303638607e-017      0                    0                    0                    0                    0                     7.443765760616247e-017      33                            33                          0                     0.023236011492924476 -0.022134664087116108  0.0003126770526548846        6.559927945214872e-013              7.1735473762981965e-012       
                 1.4178581734221672e-016                35                               1998.5044163378823       -1.3576912734874926e-006     -8.4273680539908203e-019          3.8914059131885441e-017                 90.390975604618532                         93.56543830527238                            93.56543830527238                   2.7687036059326073e-017      0                    0                    0                    0                    0                     7.5184722151005195e-017      34                            34                          0                     0.022092271571622461 -0.022443743985167762  0.00029125636085990217        6.7167231912768563e-013              7.8452196954258825e-012       
                 1.4104278403296898e-016                36                               1827.9868911069011       -1.163661812888806e-006     -7.4303330924767799e-019          3.9275035411345653e-017                 90.653344057324361                         93.56543830527238                            93.56543830527238                   2.5930786042958168e-017      0                    0                    0                    0                    0                     7.5836962578665168e-017      35                            35                          0                     0.021064473575765047 -0.022712531553258797  0.00026323327739963108        6.909708427212121e-013              8.5361905381470949e-012       
                 1.403944770785414e-016                37                               1660.2885864363461       -9.8626622172803769e-007     -6.4830695442786007e-019          3.9723719117818289e-017                 90.888499322705471                         93.56543830527238                            93.56543830527238                   2.4282813082967361e-017      0                    0                    0                    0                    0                     7.6387944877755755e-017      36                            36                          0                     0.02017238790613762 -0.022935404165230332  0.00022944325352253258        7.1340684869423864e-013              9.2495973868413342e-012       
                 1.3983477835679613e-016                38                               1532.0279970376375       -8.2764756892236149e-007     -5.5969872174506209e-019          4.024109138663651e-017                 91.090252522507427                         93.56543830527238                            93.56543830527238                   2.275968788540825e-017      0                    0                    0                    0                    0                     7.6833999084751353e-017      37                            37                          0                     0.019434678655593104 -0.023107241117190803  0.00019093894516255931        7.3896350103221479e-013              9.9885608878735489e-012       
                 1.3935582452969353e-016                39                               1402.5145508692879       -6.8923299557646262e-007     -4.7895382710290633e-019          4.0803490727394415e-017                 91.252180173661088                         93.56543830527238                            93.56543830527238                   2.1378856349624447e-017      0                    0                    0                    0                    0                     7.7173477452674664e-017      38                            38                          0                     0.018867404061110409 -0.023223899338531109  0.00014896661048700258        7.6834162537673661e-013              1.0756902513250285e-011       